<?xml version="1.0" encoding="UTF-8"?>

<VTKFile type="UnstructuredGrid" version="0.1">
  <UnstructuredGrid>
    <Piece NumberOfPoints="5202" NumberOfCells="15000">
      <Points>
        <DataArray type="Float64" NumberOfComponents="3" format="ascii">
          -10.0 -10.0 0.0 -9.607843137254902 -10.0 0.0 -9.215686274509803 -10.0 0.0 -8.823529411764707 -10.0 0.0 -8.431372549019608 -10.0 0.0 -8.03921568627451 -10.0 0.0 -7.647058823529411 -10.0 0.0 -7.254901960784314 -10.0 0.0 -6.862745098039216 -10.0 0.0 -6.470588235294118 -10.0 0.0 -6.078431372549019 -10.0 0.0 -5.686274509803922 -10.0 0.0 -5.294117647058823 -10.0 0.0 -4.901960784313726 -10.0 0.0 -4.509803921568627 -10.0 0.0 -4.11764705882353 -10.0 0.0 -3.7254901960784315 -10.0 0.0 -3.333333333333333 -10.0 0.0 -2.9411764705882355 -10.0 0.0 -2.549019607843137 -10.0 0.0 -2.1568627450980395 -10.0 0.0 -1.764705882352942 -10.0 0.0 -1.3725490196078436 -10.0 0.0 -0.9803921568627452 -10.0 0.0 -0.5882352941176467 -10.0 0.0 -0.19607843137254832 -10.0 0.0 0.19607843137254832 -10.0 0.0 0.5882352941176467 -10.0 0.0 0.9803921568627452 -10.0 0.0 1.3725490196078436 -10.0 0.0 1.7647058823529402 -10.0 0.0 2.1568627450980387 -10.0 0.0 2.549019607843137 -10.0 0.0 2.9411764705882355 -10.0 0.0 3.333333333333334 -10.0 0.0 3.7254901960784306 -10.0 0.0 4.117647058823529 -10.0 0.0 4.509803921568627 -10.0 0.0 4.901960784313726 -10.0 0.0 5.2941176470588225 -10.0 0.0 5.686274509803921 -10.0 0.0 6.078431372549019 -10.0 0.0 6.470588235294116 -10.0 0.0 6.862745098039216 -10.0 0.0 7.254901960784313 -10.0 0.0 7.647058823529413 -10.0 0.0 8.03921568627451 -10.0 0.0 8.431372549019606 -10.0 0.0 8.823529411764707 -10.0 0.0 9.215686274509803 -10.0 0.0 9.607843137254903 -10.0 0.0 -10.0 -9.607843137254902 0.0 -9.607843137254902 -9.607843137254902 0.0 -9.215686274509803 -9.607843137254902 0.0 -8.823529411764707 -9.607843137254902 0.0 -8.431372549019608 -9.607843137254902 0.0 -8.03921568627451 -9.607843137254902 0.0 -7.647058823529411 -9.607843137254902 0.0 -7.254901960784314 -9.607843137254902 0.0 -6.862745098039216 -9.607843137254902 0.0 -6.470588235294118 -9.607843137254902 0.0 -6.078431372549019 -9.607843137254902 0.0 -5.686274509803922 -9.607843137254902 0.0 -5.294117647058823 -9.607843137254902 0.0 -4.901960784313726 -9.607843137254902 0.0 -4.509803921568627 -9.607843137254902 0.0 -4.11764705882353 -9.607843137254902 0.0 -3.7254901960784315 -9.607843137254902 0.0 -3.333333333333333 -9.607843137254902 0.0 -2.9411764705882355 -9.607843137254902 0.0 -2.549019607843137 -9.607843137254902 0.0 -2.1568627450980395 -9.607843137254902 0.0 -1.764705882352942 -9.607843137254902 0.0 -1.3725490196078436 -9.607843137254902 0.0 -0.9803921568627452 -9.607843137254902 0.0 -0.5882352941176467 -9.607843137254902 0.0 -0.19607843137254832 -9.607843137254902 0.0 0.19607843137254832 -9.607843137254902 0.0 0.5882352941176467 -9.607843137254902 0.0 0.9803921568627452 -9.607843137254902 0.0 1.3725490196078436 -9.607843137254902 0.0 1.7647058823529402 -9.607843137254902 0.0 2.1568627450980387 -9.607843137254902 0.0 2.549019607843137 -9.607843137254902 0.0 2.9411764705882355 -9.607843137254902 0.0 3.333333333333334 -9.607843137254902 0.0 3.7254901960784306 -9.607843137254902 0.0 4.117647058823529 -9.607843137254902 0.0 4.509803921568627 -9.607843137254902 0.0 4.901960784313726 -9.607843137254902 0.0 5.2941176470588225 -9.607843137254902 0.0 5.686274509803921 -9.607843137254902 0.0 6.078431372549019 -9.607843137254902 0.0 6.470588235294116 -9.607843137254902 0.0 6.862745098039216 -9.607843137254902 0.0 7.254901960784313 -9.607843137254902 0.0 7.647058823529413 -9.607843137254902 0.0 8.03921568627451 -9.607843137254902 0.0 8.431372549019606 -9.607843137254902 0.0 8.823529411764707 -9.607843137254902 0.0 9.215686274509803 -9.607843137254902 0.0 9.607843137254903 -9.607843137254902 0.0 -10.0 -9.215686274509803 0.0 -9.607843137254902 -9.215686274509803 0.0 -9.215686274509803 -9.215686274509803 0.0 -8.823529411764707 -9.215686274509803 0.0 -8.431372549019608 -9.215686274509803 0.0 -8.03921568627451 -9.215686274509803 0.0 -7.647058823529411 -9.215686274509803 0.0 -7.254901960784314 -9.215686274509803 0.0 -6.862745098039216 -9.215686274509803 0.0 -6.470588235294118 -9.215686274509803 0.0 -6.078431372549019 -9.215686274509803 0.0 -5.686274509803922 -9.215686274509803 0.0 -5.294117647058823 -9.215686274509803 0.0 -4.901960784313726 -9.215686274509803 0.0 -4.509803921568627 -9.215686274509803 0.0 -4.11764705882353 -9.215686274509803 0.0 -3.7254901960784315 -9.215686274509803 0.0 -3.333333333333333 -9.215686274509803 0.0 -2.9411764705882355 -9.215686274509803 0.0 -2.549019607843137 -9.215686274509803 0.0 -2.1568627450980395 -9.215686274509803 0.0 -1.764705882352942 -9.215686274509803 0.0 -1.3725490196078436 -9.215686274509803 0.0 -0.9803921568627452 -9.215686274509803 0.0 -0.5882352941176467 -9.215686274509803 0.0 -0.19607843137254832 -9.215686274509803 0.0 0.19607843137254832 -9.215686274509803 0.0 0.5882352941176467 -9.215686274509803 0.0 0.9803921568627452 -9.215686274509803 0.0 1.3725490196078436 -9.215686274509803 0.0 1.7647058823529402 -9.215686274509803 0.0 2.1568627450980387 -9.215686274509803 0.0 2.549019607843137 -9.215686274509803 0.0 2.9411764705882355 -9.215686274509803 0.0 3.333333333333334 -9.215686274509803 0.0 3.7254901960784306 -9.215686274509803 0.0 4.117647058823529 -9.215686274509803 0.0 4.509803921568627 -9.215686274509803 0.0 4.901960784313726 -9.215686274509803 0.0 5.2941176470588225 -9.215686274509803 0.0 5.686274509803921 -9.215686274509803 0.0 6.078431372549019 -9.215686274509803 0.0 6.470588235294116 -9.215686274509803 0.0 6.862745098039216 -9.215686274509803 0.0 7.254901960784313 -9.215686274509803 0.0 7.647058823529413 -9.215686274509803 0.0 8.03921568627451 -9.215686274509803 0.0 8.431372549019606 -9.215686274509803 0.0 8.823529411764707 -9.215686274509803 0.0 9.215686274509803 -9.215686274509803 0.0 9.607843137254903 -9.215686274509803 0.0 -10.0 -8.823529411764707 0.0 -9.607843137254902 -8.823529411764707 0.0 -9.215686274509803 -8.823529411764707 0.0 -8.823529411764707 -8.823529411764707 0.0 -8.431372549019608 -8.823529411764707 0.0 -8.03921568627451 -8.823529411764707 0.0 -7.647058823529411 -8.823529411764707 0.0 -7.254901960784314 -8.823529411764707 0.0 -6.862745098039216 -8.823529411764707 0.0 -6.470588235294118 -8.823529411764707 0.0 -6.078431372549019 -8.823529411764707 0.0 -5.686274509803922 -8.823529411764707 0.0 -5.294117647058823 -8.823529411764707 0.0 -4.901960784313726 -8.823529411764707 0.0 -4.509803921568627 -8.823529411764707 0.0 -4.11764705882353 -8.823529411764707 0.0 -3.7254901960784315 -8.823529411764707 0.0 -3.333333333333333 -8.823529411764707 0.0 -2.9411764705882355 -8.823529411764707 0.0 -2.549019607843137 -8.823529411764707 0.0 -2.1568627450980395 -8.823529411764707 0.0 -1.764705882352942 -8.823529411764707 0.0 -1.3725490196078436 -8.823529411764707 0.0 -0.9803921568627452 -8.823529411764707 0.0 -0.5882352941176467 -8.823529411764707 0.0 -0.19607843137254832 -8.823529411764707 0.0 0.19607843137254832 -8.823529411764707 0.0 0.5882352941176467 -8.823529411764707 0.0 0.9803921568627452 -8.823529411764707 0.0 1.3725490196078436 -8.823529411764707 0.0 1.7647058823529402 -8.823529411764707 0.0 2.1568627450980387 -8.823529411764707 0.0 2.549019607843137 -8.823529411764707 0.0 2.9411764705882355 -8.823529411764707 0.0 3.333333333333334 -8.823529411764707 0.0 3.7254901960784306 -8.823529411764707 0.0 4.117647058823529 -8.823529411764707 0.0 4.509803921568627 -8.823529411764707 0.0 4.901960784313726 -8.823529411764707 0.0 5.2941176470588225 -8.823529411764707 0.0 5.686274509803921 -8.823529411764707 0.0 6.078431372549019 -8.823529411764707 0.0 6.470588235294116 -8.823529411764707 0.0 6.862745098039216 -8.823529411764707 0.0 7.254901960784313 -8.823529411764707 0.0 7.647058823529413 -8.823529411764707 0.0 8.03921568627451 -8.823529411764707 0.0 8.431372549019606 -8.823529411764707 0.0 8.823529411764707 -8.823529411764707 0.0 9.215686274509803 -8.823529411764707 0.0 9.607843137254903 -8.823529411764707 0.0 -10.0 -8.431372549019608 0.0 -9.607843137254902 -8.431372549019608 0.0 -9.215686274509803 -8.431372549019608 0.0 -8.823529411764707 -8.431372549019608 0.0 -8.431372549019608 -8.431372549019608 0.0 -8.03921568627451 -8.431372549019608 0.0 -7.647058823529411 -8.431372549019608 0.0 -7.254901960784314 -8.431372549019608 0.0 -6.862745098039216 -8.431372549019608 0.0 -6.470588235294118 -8.431372549019608 0.0 -6.078431372549019 -8.431372549019608 0.0 -5.686274509803922 -8.431372549019608 0.0 -5.294117647058823 -8.431372549019608 0.0 -4.901960784313726 -8.431372549019608 0.0 -4.509803921568627 -8.431372549019608 0.0 -4.11764705882353 -8.431372549019608 0.0 -3.7254901960784315 -8.431372549019608 0.0 -3.333333333333333 -8.431372549019608 0.0 -2.9411764705882355 -8.431372549019608 0.0 -2.549019607843137 -8.431372549019608 0.0 -2.1568627450980395 -8.431372549019608 0.0 -1.764705882352942 -8.431372549019608 0.0 -1.3725490196078436 -8.431372549019608 0.0 -0.9803921568627452 -8.431372549019608 0.0 -0.5882352941176467 -8.431372549019608 0.0 -0.19607843137254832 -8.431372549019608 0.0 0.19607843137254832 -8.431372549019608 0.0 0.5882352941176467 -8.431372549019608 0.0 0.9803921568627452 -8.431372549019608 0.0 1.3725490196078436 -8.431372549019608 0.0 1.7647058823529402 -8.431372549019608 0.0 2.1568627450980387 -8.431372549019608 0.0 2.549019607843137 -8.431372549019608 0.0 2.9411764705882355 -8.431372549019608 0.0 3.333333333333334 -8.431372549019608 0.0 3.7254901960784306 -8.431372549019608 0.0 4.117647058823529 -8.431372549019608 0.0 4.509803921568627 -8.431372549019608 0.0 4.901960784313726 -8.431372549019608 0.0 5.2941176470588225 -8.431372549019608 0.0 5.686274509803921 -8.431372549019608 0.0 6.078431372549019 -8.431372549019608 0.0 6.470588235294116 -8.431372549019608 0.0 6.862745098039216 -8.431372549019608 0.0 7.254901960784313 -8.431372549019608 0.0 7.647058823529413 -8.431372549019608 0.0 8.0392156
[...]
      <PointData Vectors="u_0">
        <DataArray type="Float64" Name="u_0" NumberOfComponents="3" format="ascii">
-0.360874528 -0.360876887 0.0 -0.389053555 -0.389052733 0.0 -0.414331054 -0.414331267 0.0 -0.435972363 -0.435972311 0.0 -0.453210528 -0.453210546 0.0 -0.465223754 -0.465223746 0.0 -0.471138853 -0.471138857 0.0 -0.470021131 -0.470021129 0.0 -0.460880357 -0.460880358 0.0 -0.442661365 -0.442661365 0.0 -0.414222985 -0.414222985 0.0 -0.374428357 -0.374428357 0.0 -0.321563612 -0.321563612 0.0 -0.255891678 -0.255891678 0.0 -0.174246044 -0.174246044 0.0 -0.0626391796 -0.0626391796 0.0 0.00763476702 0.00763476702 0.0 0.00190267243 0.00190267243 0.0 -0.00236088577 -0.00236088577 0.0 0.000764777775 0.000764777775 0.0 -4.3604996e-05 -4.3604996e-05 0.0 -7.07131806e-05 -7.07131806e-05 0.0 2.69640176e-05 2.69640176e-05 0.0 -4.44936325e-07 -4.44936325e-07 0.0 -9.24656639e-07 -9.24656639e-07 0.0 -8.92952141e-07 -8.92952141e-07 0.0 3.4977841e-07 3.4977841e-07 0.0 4.81046777e-08 4.81046777e-08 0.0 -7.89929974e-08 -7.89929974e-08 0.0 3.08775545e-08 3.08775545e-08 0.0 -4.32055722e-09 -4.32055722e-09 0.0 -1.36469513e-09 -1.36469513e-09 0.0 6.16115012e-10 6.16115012e-10 0.0 4.93810206e-11 4.93810206e-11 0.0 -2.3165639e-11 -2.3165639e-11 0.0 -2.19786803e-11 -2.19786803e-11 0.0 3.43514384e-12 3.43514384e-12 0.0 -6.63441174e-13 -6.63441174e-13 0.0 0.0 0.0 0.0 0.0 0.0 0.0 0.0 0.0 0.0 0.0 0.0 0.0 0.0 0.0 0.0 0.0 0.0 0.0 0.0 0.0 0.0 0.0 0.0 0.0 0.0 0.0 0.0 0.0 0.0 0.0 0.0 0.0 0.0 0.0 0.0 0.0 0.0 0.0 0.0 -0.389063562 -0.389067744 0.0 -0.419691101 -0.419690234 0.0 -0.447646085 -0.447646367 0.0 -0.472189637 -0.47218951 0.0 -0.492554766 -0.492554817 0.0 -0.50791699 -0.507916975 0.0 -0.517399468 -0.517399471 0.0 -0.520067536 -0.520067536 0.0 -0.51492132 -0.51492132 0.0 -0.500901609 -0.50090161 0.0 -0.476860416 -0.476860416 0.0 -0.441621368 -0.441621368 0.0 -0.39397947 -0.39397947 0.0 -0.33153011 -0.33153011 0.0 -0.25683754 -0.25683754 0.0 -0.16100075 -0.16100075 0.0 -0.0440133043 -0.0440133043 0.0 0.00908038032 0.00908038032 0.0 0.00112530526 0.00112530526 0.0 -0.00165840354 -0.00165840354 0.0 0.000470032308 0.000470032308 0.0 1.33160499e-05 1.33160499e-05 0.0 -4.15966291e-05 -4.15966291e-05 0.0 -1.60863219e-06 -1.60863219e-06 0.0 3.98438587e-06 3.98438587e-06 0.0 1.67030139e-06 1.67030139e-06 0.0 -1.45428731e-06 -1.45428731e-06 0.0 4.30067971e-07 4.30067971e-07 0.0 -9.83374257e-09 -9.83374257e-09 0.0 -4.66052333e-08 -4.66052333e-08 0.0 1.62404897e-08 1.62404897e-08 0.0 -2.7109576e-10 -2.7109576e-10 0.0 -7.65088656e-10 -7.65088656e-10 0.0 -2.93293294e-10 -2.93293294e-10 0.0 1.53457508e-10 1.53457508e-10 0.0 4.19406039e-11 4.19406039e-11 0.0 -3.69822293e-11 -3.69822293e-11 0.0 4.29078399e-12 4.29078399e-12 0.0 0.0 0.0 0.0 0.0 0.0 0.0 0.0 0.0 0.0 0.0 0.0 0.0 0.0 0.0 0.0 0.0 0.0 0.0 0.0 0.0 0.0 0.0 0.0 0.0 0.0 0.0 0.0 0.0 0.0 0.0 0.0 0.0 0.0 0.0 0.0 0.0 0.0 0.0 0.0 -0.414323701 -0.414320239 0.0 -0.447646673 -0.447647249 0.0 -0.478516053 -0.478515891 0.0 -0.50622031 -0.506220466 0.0 -0.529983962 -0.52998385 0.0 -0.548985093 -0.548985146 0.0 -0.562342801 -0.562342782 0.0 -0.569119435 -0.569119441 0.0 -0.568313182 -0.56831318 0.0 -0.55885523 -0.55885523 0.0 -0.539612239 -0.539612239 0.0 -0.509323114 -0.509323114 0.0 -0.466806349 -0.466806349 0.0 -0.410703113 -0.410703113 0.0 -0.33823575 -0.33823575 0.0 -0.252788565 -0.252788565 0.0 -0.142865228 -0.142865228 0.0 -0.0343707429 -0.0343707429 0.0 0.006387354 0.006387354 0.0 0.000948423155 0.000948423155 0.0 -0.000993552815 -0.000993552815 0.0 0.000113649049 0.000113649049 0.0 5.68585447e-05 5.68585447e-05 0.0 1.95192778e-05 1.95192778e-05 0.0 -1.98051402e-05 -1.98051402e-05 0.0 2.52358631e-06 2.52358631e-06 0.0 1.77140686e-06 1.77140686e-06 0.0 -1.28881482e-06 -1.28881482e-06 0.0 3.37458587e-07 3.37458587e-07 0.0 -1.55458376e-09 -1.55458376e-09 0.0 -2.44379286e-08 -2.44379286e-08 0.0 5.33099192e-10 5.33099192e-10 0.0 1.93001548e-09 1.93001548e-09 0.0 7.75892421e-10 7.75892421e-10 0.0 -7.40812253e-10 -7.40812253e-10 0.0 1.67454886e-10 1.67454886e-10 0.0 2.16116249e-11 2.16116249e-11 0.0 -1.61440455e-11 -1.61440455e-11 0.0 0.0 0.0 0.0 0.0 0.0 0.0 0.0 0.0 0.0 0.0 0.0 0.0 0.0 0.0 0.0 0.0 0.0 0.0 0.0 0.0 0.0 0.0 0.0 0.0 0.0 0.0 0.0 0.0 0.0 0.0 0.0 0.0 0.0 0.0 0.0 0.0 0.0 0.0 0.0 -0.435952697 -0.435942812 0.0 -0.472201872 -0.472207863 0.0 -0.506214103 -0.506211156 0.0 -0.537342154 -0.537343265 0.0 -0.564776955 -0.564776623 0.0 -0.58770847 -0.587708548 0.0 -0.605251143 -0.60525113 0.0 -0.61646532 -0.61646532 0.0 -0.620346316 -0.620346317 0.0 -0.615820029 -0.615820029 0.0 -0.601740999 -0.601740999 0.0 -0.576904671 -0.576904671 0.0 -0.539889644 -0.539889644 0.0 -0.489633059 -0.489633059 0.0 -0.424111596 -0.424111596 0.0 -0.341886553 -0.341886553 0.0 -0.242206422 -0.242206422 0.0 -0.118851247 -0.118851247 0.0 -0.0228143749 -0.022814375 0.0 0.00306129093 0.00306129098 0.0 0.00078136059 0.000781360633 0.0 7.55639572e-07 7.5522036e-07 0.0 -0.000266204526 -0.000266203308 0.0 8.44693156e-06 8.44637744e-06 0.0 4.8881637e-05 4.88717159e-05 0.0 -2.36616034e-05 -2.36170464e-05 0.0 4.53484168e-06 4.4385512e-06 0.0 7.14839433e-07 8.16985426e-07 0.0 -6.99759132e-07 -6.83621906e-07 0.0 1.7867501e-07 -3.72148358e-08 0.0 5.51170843e-07 -8.06488979e-07 0.0 -5.23843273e-06 8.3967217e-06 0.0 2.06310499e-05 -3.30337643e-05 0.0 -4.71516468e-05 7.54448443e-05 0.0 6.19053443e-05 -9.90451682e-05 0.0 -4.66433433e-05 7.46273694e-05 0.0 1.30633958e-05 -2.09009639e-05 0.0 -0.000252276585 0.00040364253 0.0 0.000905087093 -0.00144813935 0.0 -0.00713937619 0.0114230019 0.0 0.00482630066 -0.00772208106 0.0 -0.0278789069 0.044606251 0.0 0.00760070309 -0.0121611249 0.0 0.0141975767 -0.0227161228 0.0 -0.00211921777 0.00339074843 0.0 -0.0028224191 0.00451587057 0.0 8.25342114e-05 -0.000132054738 0.0 4.57910277e-05 -7.32656443e-05 0.0 -1.30538102e-05 2.08860963e-05 0.0 2.94547389e-06 -4.71275823e-06 0.0 -7.78718115e-07 1.24594898e-06 0.0 -0.453137955 -0.453101686 0.0 -0.4925768 -0.492587867 0.0 -0.529980386 -0.529978487 0.0 -0.564777309 -0.564777154 0.0 -0.596164035 -0.596164315 0.0 -0.623316742 -0.623316607 0.0 -0.645356689 -0.645356733 0.0 -0.661339802 -0.661339791 0.0 -0.670259355 -0.670259358 0.0 -0.671039471 -0.67103947 0.0 -0.662525369 -0.66252537 0.0 -0.643494368 -0.643494368 0.0 -0.612640659 -0.612640659 0.0 -0.568466242 -0.568466242 0.0 -0.509753602 -0.509753602 0.0 -0.434331485 -0.434331485 0.0 -0.341920183 -0.341920183 0.0 -0.226160217 -0.226160217 0.0 -0.0883695692 -0.088369569 0.0 -0.00868957639 -0.00868957668 0.0 -0.00125695079 -0.00125695058 0.0 -9.11405167e-05 -9.11410778e-05 0.0 0.000888670231 0.000888674299 0.0 -0.000289558796 -0.000289578776 0.0 1.15103706e-05 1.15815057e-05 0.0 3.68031577e-05 3.66381386e-05 0.0 -1.66393884e-05 -1.64450661e-05 0.0 2.25637063e-06 2.33630297e-06 0.0 8.40917842e-07 4.10241203e-07 0.0 4.39183648e-07 -1.033354e-06 0.0 -4.98541261e-06 7.72402624e-06 0.0 1.92636907e-05 -3.08209129e-05 0.0 -4.54475145e-05 7.27890491e-05 0.0 3.91871154e-05 -6.27295521e-05 0.0 0.000144471302 -0.000231149799 0.0 -0.000533589452 0.000853745027 0.0 0.00036807336 -0.000588918561 0.0 0.00202717876 -0.00324348586 0.0 -0.0133182437 0.0213091899 0.0 0.0434501434 -0.0695202294 0.0 -0.0441770949 0.0706833518 0.0 0.143525061 -0.229640098 0.0 -0.0391446921 0.0626315073 0.0 -0.0742897016 0.118863523 0.0 0.0111063613 -0.0177701781 0.0 0.0147287599 -0.0235660159 0.0 -0.000428187853 0.000685100565 0.0 -0.000239887648 0.000383820237 0.0 6.83726619e-05 -0.000109396259 0.0 -1.54362497e-05 2.46979995e-05 0.0 4.08119683e-06 -6.52991493e-06 0.0 -0.465327197 -0.465378909 0.0 -0.507857994 -0.507828481 0.0 -0.549008086 -0.549019635 0.0 -0.587701038 -0.587697401 0.0 -0.623318858 -0.623319782 0.0 -0.65498666 -0.654986482 0.0 -0.681836732 -0.681836759 0.0 -0.702922791 -0.702922786 0.0 -0.717236247 -0.717236248 0.0 -0.723697452 -0.723697452 0.0 -0.721153775 -0.721153775 0.0 -0.708361397 -0.708361397 0.0 -0.684018241 -0.684018241 0.0 -0.646686578 -0.646686578 0.0 -0.594864905 -0.594864905 0.0 -0.526928539 -0.526928539 0.0 -0.440825332 -0.440825332 0.0 -0.337715564 -0.337715564 0.0 -0.20423878 -0.20423878 0.0 -0.0509923809 -0.0509923822 0.0 0.00902974194 0.009029746 0.0 -0.00286378373 -0.00286379185 0.0 -0.00108704078 -0.00108702986 0.0 0.00099243131 0.000992415029 0.0 -0.000314176806 -0.000314126059 0.0 2.60359983e-05 2.57669089e-05 0.0 2.01914588e-05 2.14777712e-05 0.0 -4.84245529e-06 -8.86226607e-06 0.0 -3.90510394e-06 4.24733085e-06 0.0 4.18261595e-06 -6.4127814e-06 0.0 -5.18539781e-06 9.32581808e-06 0.0 2.04927726e-05 -3.31206457e-05 0.0 -9.98963735e-05 0.000159800356 0.0 0.000436959873 -0.000699068103 0.0 -0.00140611452 0.00224975716 0.0 0.0027253378 -0.00436053724 0.0 -0.00251104962 0.0040176806 0.0 0.0017544607 -0.00280713737 0.0 -0.0026043471 0.00416695537 0.0 0.0164111199 -0.0262577918 0.0 -0.471623727 0.754597963 0.0 -0.76595858 1.22553373 0.0 0.152370082 -0.243792131 0.0 0.282010658 -0.451217052 0.0 -0.0420515224 0.0672824358 0.0 -0.0561608687 0.0898573898 0.0 0.0016485042 -0.00263760672 0.0 0.000908859579 -0.00145417533 0.0 -0.00025912389 0.000414598224 0.0 5.84477217e-05 -9.35163546e-05 0.0 -1.54518039e-05 2.47228863e-05 0.0 -0.471523088 -0.47171521 0.0 -0.51730921 -0.517264083 0.0 -0.562355278 -0.562361496 0.0 -0.605252159 -0.605252655 0.0 -0.645355464 -0.645354895 0.0 -0.681837039 -0.68183722 0.0 -0.713810471 -0.713810426 0.0 -0.740335005 -0.740335018 0.0 -0.760400049 -0.760400041 0.0 -0.772924098 -0.772924102 0.0 -0.776749715 -0.776749713 0.0 -0.770637824 -0.770637827 0.0 -0.753256322 -0.753256327 0.0 -0.723195973 -0.723195936 0.0 -0.678902386 -0.678902359 0.0 -0.618882234 -0.618882205 0.0 -0.541017225 -0.541018887 0.0 -0.443270099 -0.443270973 0.0 -0.329135205 -0.32911987 0.0 -0.175057128 -0.175061521 0.0 -0.0170609237 -0.0170767718 0.0 0.0142260658 0.0141530571 0.0 -0.00290930567 -0.00325771145 0.0 -0.00128622095 -9.29817428e-05 0.0 -9.12851769e-05 0.00111975383 0.0 0.00341133809 -0.00255635314 0.0 0.000358116591 -0.00024770612 0.0 0.0202342963 -0.0134763839 0.0 0.114917733 -0.0766021947 0.0 0.2560941 -0.170750291 0.0 0.389737692 -0.259775286 0.0 0.508660331 -0.339184989 0.0 0.617635325 -0.411686654 0.0 0.713625125 -0.475789855 0.0 0.806668507 -0.537592646 0.0 0.867191326 -0.581856166 0.0 0.98016337 -0.634621575 0.0 0.446856718 -0.339250054 0.0 -0.159155451 0.182013002 0.0 -0.444248914 0.727355515 0.0 -1.20524171 1.92366193 0.0 -2.05356222 3.28703072 0.0 -1.1360408 1.81731492 0.0 -1.21456443 1.94339562 0.0 0.11457826 -0.183350137 0.0 0.221243843 -0.353983455 0.0 -0.00920141856 0.0147205145 0.0 -0.00258231104 0.00413203342 0.0 0.000750312389 -0.00120049982 0.0 -0.000159992493 0.000255987988 0.0 4.20879497e-05 -6.73407195e-05 0.0 -0.469625514 -0.469427704 0.0 -0.520251187 -0.520343013 0.0 -0.569060483 -0.569031014 0.0 -0.616480171 -0.616487596 0.0 -0.661336352 -0.661334616 0.0 -0.702923787 -0.702924279 0.0 -0.740334572 -0.740334368 0.0 -0.772634291 -0.772634384 0.0 -0.798810049 -0.798810016 0.0 -0.817780789 -0.817780799 0.0 -0.828385591 -0.828385589 0.0 -0.829382372 -0.82938236 0.0 -0.819437767 -0.819437765 0.0 -0.797125699 -0.797126003 0.0 -0.760915954 -0.760915891 0.0 -0.709110224 -0.709110121 0.0 -0.640302541 -0.640299964 0.0 -0.55161183 -0.551602338 0.0 -0.441707254 -0.441746249 0.0 -0.313245103 -0.313264772 0.0 -0.145134043 -0.145014162 0.0 -0.0127746916 -0.0126548435 0.0 0.00955607174 0.010323668 0.0 -0.00112523548 -0.00213107574 0.0 0.00446745267 -0.00390128586 0.0 -0.00972251903 0.00708247138 0.0 -0.00152826519 0.000997464951 0.0 0.109798639 -0.0732175101 0.0 0.271576896 -0.181087245 0.0 0.411991204 -0.274607254 0.0 0.534547731 -0.356420177 0.0 0.646475874 -0.431057621 0.0 0.747776001 -0.498054778 0.0 0.836208236 -0.558161091 0.0 0.929169108 -0.61970802 0.0 0.946506202 -0.623921657 0.0 1.22150817 -0.838832306 0.0 0.450628068 -0.303771967 0.0 -0.623203802 0.879027474 0.0 -1.0821269 1.77499201 0.0 -1.74492347 2.78138319 0.0 -2.13103489 3.4121999 0.0 -2.68460608 4.29466203 0.0 -2.99062039 4.78518773 0.0 -1.18878915 1.9020109 0.0 -0.860928191 1.37749885 0.0 -0.0158617353 0.0253751586 0.0 0.0230450903 -0.0368714503 0.0 -0.00639226968 0.0102276315 0.0 0.0015595753 -0.00249532048 0.0 -0.000414968182 0.000663949091 0.0 -0.460238748 -0.459917944 0.0 -0.515008784 -0.515052516 0.0 -0.568310093 -0.568308547 0.0 -0.620346512 -0.620346611 0.0 -0.670258167 -0.670257575 0.0 -0.717237142 -0.717237592 0.0 -0.76039982 -0.760399698 0.0 -0.798810076 -0.798810056 0.0 -0.831457705 -0.831457735 0.0 -0.857260097 -0.857260078 0.0 -0.875056507 -0.875056511 0.0 -0.883601064 -0.883601128 0.0 -0.881558091 -0.88155829 0.0 -0.867493027 -0.867491941 0.0 -0.839875521 -0.839875358 0.0 -0.797048051 -0.797049812 0.0 -0.737125877 -0.737130072 0.0 -0.658890195 -0.658914236 0.0 -0.558333446 -0.558288325 0.0 -0.436829747 -0.436621295 0.0 -0.287634853 -0.288113231 0.0 -0.115523303 -0.11585263 0.0 -0.00788775499 -0.00922069608 0.0 0.00572298767 0.00582959284 0.0 -0.011415314 0.0069514716 0.0 0.00344851974 -0.00296279965 0.0 0.118187481 -0.0789410368 0.0 0.285034311 -0.189865574 0.0 0.427343406 -0.284906152 0.0 0.553164107 -0.368740428 0.0 0.670383429 -0.447212668 0.0 0.773844849 -0.514810437 0.0 0.871413289 -0.583367641 0.0 0.950588945 -0.630992736 0.0 1.02730014 -0.686726515 0.0 1.10092165 -0.734086829 0.0 1.10947221 -0.729370584 0.0 0.871915597 -0.200747816 0.0 -0.615312245 1.40371476 0.0 -1.74614559 2.65700701 0.0 -1.99667461 3.226889 0.0 -2.37580325 3.79366101 0.0 -2.47235082 3.95790196 0.0 -2.4298381 3.88714677 0.0 -2.50435878 4.00713127 0.0 -2.05056306 3.28085922 0.0 -0.360748491 0.577208564 0.0 0.0100621692 -0.0161015783 0.0 -0.00189620781 0.0030339325 0.0 0.00107994638 -0.00172791421 0.0 -0.000300261419 0.00048041827 0.0 -0.443434616 -0.443821241 0.0 -0.500677907 -0.500566056 0.0 -0.558910757 -0.558938521 0.0 -0.615802374 -0.615793546 0.0 -0.671050622 -0.671056197 0.0 -0.723690899 -0.723687621 0.0 -0.772926929 -0.772928349 0.0 -0.817779779 -0.817779281 0.0 -0.857260419 -0.857260572 0.0 -0.890281118 -0.890281082 0.0 -0.915682797 -0.91568279 0.0 -0.932218104 -0.932217983 0.0 -0.938548922 -0.938548191 0.0 -0.933235874 -0.933237716 0.0 -0.914730688 -0.914734432 0.0 -0.881414104 -0.881404902 0.0 -0.831428032 -0.831418205 0.0 -0.762887874 -0.762846283 0.0 -0.674047066 -0.674043464 0.0 -0.561098085 -0.561821639 0.0 -0.426436195 -0.425519187 0.0 -0.255425154 -0.252979865 0.0 -0.0790172627 -0.0789735887 0.0 -0.0072977695 -0.00172113662 0.0 0.0247577361 -0.0158950065 0.0 0.136240936 -0.0889985178 0.0 0.295246007 -0.196606064 0.0 0.442641115 -0.295619407 0.0 0.574728601 -0.383043479 0.0 0.69612135 -0.464014983 0.0 0.804946386 -0.536687083 0.0 0.902300101 -0.601532585 0.0 0.991544133 -0.663132191 0.0 1.0509763 -0.686388837 0.0 1.17312672 -0.818013323 0.0 1.11077798 -0.664558601 0.0 0.846889838 -0.188534954 0.0 0.289913742 0.729877829 0.0 -0.0775710636 1.44340144 0.0 -1.34569792 2.67063638 0.0 -2.33251137 3.63234595 0.0 -2.40249645 3.86694385 0.0 -2.51003931 4.00954863 0.0 -2.38911658 3.82440898 0.0 -1.95764973 3.13175864 0.0 -1.36428008 2.18297535 0.0 -0.449211777 0.718705308 0.0 -0.00251255139 0.00402652384 0.0 -0.00321161743 0.00513858789 0.0 -0.00169221756 0.00270754809 0.0 0.000493757841 -0.000790012546 0.0 -0.414711705 -0.414956065 0.0 -0.476594563 -0.476461636 0.0 -0.539829776 -0.539938544 0.0 -0.601621118 -0.601561178 0.0 -0.662570234 -0.662592666 0.0 -0.721140985 -0.721134592 0.0 -0.776752323 -0.776753623 0.0 -0.828385398 -0.828385318 0.0 -0.875056396 -0.875056285 0.0 -0.915682883 -0.915682865 0.0 -0.949104627 -0.949104781 0.0 -0.974075523 -0.974075751 0.0 -0.989254243 -0.989255696 0.0 -0.993203974 -0.993203144 0.0 -0.984383424 -0.984365131 0.0 -0.961071225 -0.961096716 0.0 -0.921573398 -0.921621423 0.0 -0.863858712 -0.863907369 0.0 -0.785955343 -0.786073375 0.0 -0.686407669 -0.684993439 0.0 -0.560850788 -0.56048294 0.0 -0.403663701 -0.414317729 0.0 -0.214430216 -0.211344772 0.0 -0.0189888552 -0.0452313015 0.0 0.134297781 -0.0851065953 0.0 0.298417852 -0.20692836 0.0 0.460778227 -0.305410834 0.0 0.597414727 -0.397744995 0.0 0.722321494 -0.48211373 0.0 0.834895207 -0.556065362 0.0 0.936775543 -0.62525681 0.0 1.02578434 -0.683636723 0.0 1.10063604 -0.728848234 0.0 1.19953133 -0.821860721 0.0 1.22544141 -0.805048389 0.0 0.863173675 -0.180113589 0.0 0.428845793 0.57199715 0.0 -0.0677054662 1.34303932 0.0 -0.196805017 1.78800512 0.0 -1.51435264 2.96747628 0.0 -2.48334133 3.82051028 0.0 -2.36578327 3.84022937 0.0 -2.39552014 3.81946354 0.0 -2.15976704 3.45892212 0.0 -1.77198025 2.8342582 0.0 -1.05422836 1.68701438 0.0 -0.139566577 0.223241643 0.0 0.0195046509 -0.0311950914 0.0 -0.00717268202 0.0114762912 0.0 -0.000718271279 0.00114923405 0.0 6.72446873e-06 -1.075915e-05 0.0 -0.377541181 -0.379097594 0.0 -0.440226984 -0.439529792 0.0 -0.509700819 -0.509889672 0.0 -0.576875032 -0.576860213 0.0 -0.643465874 -0.643451629 0.0 -0.708380958 -0.708390736 0.0 -0.770629851 -0.770625859 0.0 -0.829384877 -0.82938608 0.0 -0.88360046 -0.883600207 0.0 -0.932217911 -0.932218377 0.0 -0.974076004 -0.974075364 0.0 -1.00792881 -1.00792797 0.0 -1.03243742 -1.03243517 0.0 -1.04615808 -1.04615506 0.0 -1.04751248 -1.04755753 0.0 -1.03492063 -1.03490627 0.0 -1.00662253 -1.00638003 0.0 -0.960313933 -0.96031528 0.0 -0.894452801 -0.894197787 0.0 -0.805173935 -0.807168198 0.0 -0.689278786 -0.695762715 0.0 -0.569891214 -0.544483678 0.0 -0.39559402 -0.384017196 0.0 -0.0354495043 -0.244595526 0.0 0.324266672 -0.203839992 0.0 0.486926035 -0.310353928 0.0 0.614395163 -0.418343031 0.0 0.75100668 -0.49906147 0.0 0.865570328 -0.575844031 0.0 0.97297868 -0.651279565 0.0 1.06062689 -0.703888989 0.0 1.14895343 -0.768376583 0.0 1.2195012 -0.81360955 0.0 1.25268861 -0.807643055 0.0 0.976185424 -0.314568467 0.0 0.513585508 0.469829584 0.0 0.12605728 1.12303516 0.0 -0.198669524 1.68437877 0.0 -0.529009017 2.19528852 0.0 -0.614355782 2.46801056 0.0 -1.78881804 3.37722657 0.0 -2.53671431 3.89342662 0.0 -2.19995252 3.55913688 0.0 -1.95945799 3.12569788 0.0 -1.45673247 2.3334022 0.0 -0.707112459 1.13065581 0.0 -0.0922317398 0.147759059 0.0 0.00490715764 -0.0078872288 0.0 0.00239649013 -0.0038343842 0.0 -0.000197524988 0.000316039982 0.0 4.64711312e-07 -7.43538099e-07 0.0 -0.321477222 -0.321434026 0.0 -0.396483441 -0.397735427 0.0 -0.465388113 -0.464678994 0.0 -0.540430769 -0.540701332 0.0 -0.612477129 -0.612395356 0.0 -0.684056847 -0.684076163 0.0 -0.753250224 -0.753247193 0.0 -0.819438011 -0.819438234 0.0 -0.881558279 -0.881558399 0.0 -0.938549236 -0.938547935 0.0 -0.989254522 -0.989255517 0.0 -1.03243331 -1.03243792 0.0 -1.06675032 -1.06675291 0.0 -1.09075591 -1.0907643 0.0 -1.10295023 -1.10288183 0.0 -1.10162555 -1.1014586 0.0 -1.08431088 -1.08512947 0.0 -1.05074441 -1.05084333 0.0 -0.997592157 -0.997295157 0.0 -0.9238042 -0.921459418 0.0 -0.833915017 -0.816841277 0.0 -0.679764811 -0.707413281 0.0 -0.397591653 -0.641741846 0.0 -0.0248639601 -0.578440492 0.0 0.377441708 -0.450214112 0.0 0.654915848 -0.416088176 0.0 0.783537763 -0.51226525 0.0 0.894795451 -0.602714121 0.0 1.00714899 -0.670499227 0.0 1.10395314 -0.736621514 0.0 1.17668033 -0.774270443 0.0 1.29579837 -0.894831022 0.0 1.24762013 -0.756877087 0.0 1.02535886 -0.348842661 0.0 0.616799793 0.349458383 0.0 0.261417363 0.955203767 0.0 -0.0510794944 1.48629184 0.0 -0.328079825 1.95146082 0.0 -0.535325177 2.30813353 0.0 -0.691358763 2.5572344 0.0 -0.633969014 2.57585227 0.0 -1.60686427 3.17485079 0.0 -2.19075118 3.38859565 0.0 -1.67918701 2.71394252 0.0 -1.19816235 1.90937842 0.0 -0.386111566 0.619909754 0.0 0.0397437581 -0.0641426846 0.0 0.00344731745 -0.00541090807 0.0 -0.00308494833 0.00493591733 0.0 0.000355597727 -0.000568956363 0.0 4.99442171e-05 -7.99107474e-05 0.0 -0.237364142 -0.228100374 0.0 -0.33707919 -0.33985373 0.0 -0.409758232 -0.409285791 0.0 -0.489549154 -0.4895072 0.0 -0.568603807 -0.568672628 0.0 -0.646625379 -0.646594737 0.0 -0.723214438 -0.723223571 0.0 -0.797121407 -0.797119029 0.0 -0.867493781 -0.867494069 0.0 -0.933235106 -0.9332